# vtk DataFile Version 3.0
vtk output
ASCII
DATASET UNSTRUCTURED_GRID
POINTS 1000 float
-16370.181       39.00924     -2132.7364
-16683.951      871.20471     -584.81542
-16180.331       1782.119     -313.07737
-15604.347      2202.3183     -912.16589
-15973.477      1467.0218     -1325.8216
-16402.884      658.98063     -1520.5804
-17065.572     -2707.5087     -664.06459
-17122.619     -1530.6986     -1721.3905
-16806.628     -821.80282     -2054.9076
-17040.567       -198.106     -1020.8299
-17399.904     -1876.9317      -845.5138
-17313.617     -1183.1996     -1132.2294
-13599.366       117.5362     -3831.9089
-12567.607     -96.433777      -4208.485
-8768.217     -3579.8619     -494.70637
-14416.448     -3942.1898     -427.59217
-15197.299     -3712.7618     -210.31278
-12469.423     -4088.7116     -440.55039
-9049.3101     -1894.3279     -3767.4395
-10310.218     -546.00806     -4530.8474
-16086.461     -3421.8818      -759.0437
-16931.774     -2311.2176     -1845.4704
-15755.759     -605.33888     -2963.2237
-9908.2923     -3617.1776     -546.99435
-11600.887     -4001.5845     -450.28268
-16539.426     -1484.0342     -2616.6675
-9229.5305     -799.89203     -4663.1308
-9455.391     -2695.1035     -2741.6171
-14066.628     -827.31898     -3877.7093
-12058.836     -940.90414      -4184.822
-11129.438     -906.68819     -4248.5279
-16531.833     -3054.5645     -1446.2535
-9633.1227     -3304.1301     -1408.6621
-10801.781     -3555.4452      -1082.477
-14003.096     -3925.3217     -1029.1919
-13235.279     -1023.9976     -4039.6197
-10020.358      -1671.175     -3715.5991
-13136.591     -3862.4472     -1133.4827
-14804.307      -1414.751     -3578.1476
-15802.662     -1635.3945     -3226.4149
-10675.769     -1305.9046     -4033.0473
-16289.469     -2842.4116     -2247.0163
-16222.913     -2165.7638     -2722.7319
-10350.088     -2461.0326     -2964.0862
-14921.661     -3708.3629     -1388.3696
-12030.169     -3601.3329     -1325.7146
-12580.071     -1925.7954     -3816.2292
-11264.047     -3229.0629     -1783.6084
-15743.717     -3406.0234     -1944.3382
-12860.474      -3477.439     -2005.4001
-13706.951     -1896.6453     -3748.2569
-10450.181     -3042.1889     -2010.1827
-11246.751     -1858.9068     -3728.7884
-13920.5     -3489.2184     -2120.6652
-12058.043     -3134.1711     -2333.2337
-15427.809      -2584.281     -3003.7622
-11193.227     -2752.6236     -2654.8189
-12036.788     -2536.8649     -3233.6772
-14738.274     -3266.3813     -2473.9854
-14244.028     -2726.7559     -3100.3539
-13089.43     -2886.5842     -3021.2081
-16088.669     -1324.2045      3177.1321
-9155.5345     -3649.2143       825.2005
-12262.678      -456.2149      4543.2866
-14737.688     -1322.1664      3752.7038
-11600.634     -1904.0534      3824.9166
-10722.681     -4018.5099      67.483401
-11408.839     -2356.5817      3109.2683
-13370.371     -4070.8834      201.80011
-15946.09     -3390.3484       227.9465
-9735.4191     -3712.2774      227.27709
-10544.095     -3331.8853      2009.8799
-16251.516     -2994.3584      1220.1575
-12228.611     -1453.3509      4106.1638
-14403.449     -3865.2428      563.94856
-13148.764     -1140.4097      4184.4333
-11299.795      -2974.723      2340.2307
-15379.428     -1876.6999      3259.7408
-11946.705     -4011.8521      790.05441
-15283.317     -3499.4111      808.66907
-16087.701     -2287.1452      2436.3395
-10456.92     -3753.6313      1134.2529
-12460.53     -1809.7879      3365.7124
-11311.708     -3519.6715      1663.9609
-13680.754      -1839.357      3572.9411
-13746.622     -3815.1649      1161.4003
-14993.434     -2606.9357      2626.0477
-12573.058     -2647.3932       2679.074
-14254.06     -3499.4485      1543.6053
-12126.265     -3488.4928      1874.5924
-14487.62      -2168.162      3141.6599
-15150.332     -3020.9086      1841.1225
-13114.825     -3582.5933      1623.5386
-13984.576     -2850.8404      2517.1863
-7927.4021     -3590.9688      358.39553
-6534.8161      -3112.412      1976.0215
-4854.8439     -1026.6706       4499.146
-4068.3524     -384.67087       5073.591
-7139.9924     -419.40383       4870.014
-9652.8986     -3331.0807      1831.0678
-8506.0736     -193.10408       5026.508
-10567.872      31.081703      5008.1984
-6358.4627     -2659.2492      2750.8961
-4874.6786     -186.97889      5073.1456
-10252.994     -2733.9312      2786.0553
-6096.6826     -2046.6719      3522.7264
-7179.6111     -2878.5997      2507.9489
-10663.396     -1920.8978      3784.9068
-9823.8465     -506.57529      4710.1462
-5937.8406     -553.33709      4796.3633
-11119.436     -965.54999      4566.7378
-5787.7343     -1394.2234      4060.2842
-8548.092     -3385.5522       1607.335
-9164.3058     -2837.7741       2621.462
-8071.3844     -3028.1217      2364.0782
-7211.9709     -2072.1575       3368.732
-6707.4414     -1376.9439       4217.609
-8997.632     -1215.1563      4356.9579
-7869.9437      -1279.262      4318.6454
-7835.6426     -2521.9495      3013.1265
-9994.0017     -1294.9584      4340.5959
-9469.8856     -2047.5346      3638.5937
-8630.4746     -2402.4715      3119.8991
-8335.0722     -1910.9479      3687.9679
-11458.459       340.5292      4940.7997
-4863.4488      2073.0532      5683.6392
-4502.3498      733.24263      5603.6749
-10578.845      1081.1166      5217.8649
-5179.489      3474.6044      5175.1903
-8384.9725      2300.2616      5321.2016
-6481.182      325.57039      5348.1871
-9462.4984      1836.7353       5244.835
-9592.4479      558.99084      5245.4793
-5538.1814      539.28445      5464.7018
-7158.0018      2707.9587      5285.3152
-5459.2019      1426.9596      5674.6495
-7367.4647      690.91883      5341.8081
-6001.4565      2554.1129      5516.2922
-8473.8557       1189.304      5398.5243
-7511.219       1731.801      5519.8236
-6458.4025      1434.9964      5619.9008
-5776.3361      4468.3703      4295.6208
-12434.758      2758.7791      3676.6992
-9844.9282      2644.2648      4826.4158
-11128.707      4718.1693      1805.7486
-9109.236      5864.4497      1105.0933
-8466.7619      5756.3342      1978.6091
-12564.306      1995.9957      4292.4154
-12369.14      575.17517      4807.7554
-10604.434      5173.1156      1190.1376
-6894.2874      4692.3989      3678.6452
-7288.7069       3556.785       4795.013
-8066.1689      3390.5136      4679.6171
-6543.005      3783.5961      4729.1889
-9066.3614      2900.3431      4843.2849
-10564.406       2097.439      4958.1748
-11750.422      3278.4175      3404.3657
-7764.8508      5317.4699      2837.4405
-11222.363      3897.6931      2794.4187
-11911.54       2281.779      4317.1565
-11776.324      1522.4824      4851.5964
-8730.7297       4805.943      2474.4045
-9591.9134      5455.0525      1604.2275
-9634.4589      3219.8083      4344.0104
-10073.764       4561.678      2319.9039
-7350.3341      3958.8014      4183.6622
-11440.865      2796.6856      3979.3279
-11216.887      2381.0003       4592.448
-11015.655      3344.9407      3619.9568
-8135.2      4373.6346      3625.2158
-10529.748      2931.5465      4337.1914
-9015.5732      3656.5403      4066.3506
-10139.47      3702.2808      3516.8566
-9177.2152      4157.0661      3058.2633
-14035.136      782.58138      4263.7088
-14719.954      1318.8261      3529.1339
-13125.594      2218.3604      3821.8668
-14932.6      2245.2435      2599.3592
-12354.694      3512.4673      2826.2648
-10072.801      5579.6893      346.26223
-12199.371      4804.1261      50.561025
-11196.13      5175.1321      179.56853
-12153.247      4265.8296      1826.1564
-13055.019      1285.7258      4443.5419
-14522.132      3378.5904      1294.7448
-14036.469      3938.2754      568.56559
-12864.582      4449.9462      840.62666
-11689.089      4862.5078       903.0654
-12932.641       3872.549      2206.1602
-14382.442      2965.1993      2311.0828
-13955.867      2003.0626      3507.9086
-13382.27      3080.3945      2921.0209
-13674.822       3772.887      1600.1794
-12949.227      4173.2292      1512.0652
-6819.4032      7266.3766      563.41593
-4495.5809      6095.2348      2921.1896
-6685.4313      5603.5144      2862.4099
-5099.8624      4847.9791      4035.1379
-8851.3623       6172.146      250.49722
-3357.111      8318.5857       513.4479
-8302.5795      6207.8295       1277.571
-5845.9036       5165.103      3501.6452
-4829.9799      5455.3939      3454.4911
-3939.4348      7946.2741      1131.5893
-4709.3043      6668.0678      2331.4343
-7635.7315        6712.81      883.45083
-7431.5195      6202.9163      1972.6233
-4843.325      7445.0511      1407.1866
-5804.8636      7390.5696      688.91795
-5473.1076      5906.8844      2828.4861
-6012.5327      6621.3272      2016.0591
-6703.2992      6961.0417      1401.6642
-5703.1679     -3544.4406      118.23628
-4570.2322     -3609.3325     -5.7643262
-3351.7739     -3818.8544     -115.43352
-3308.5567     -3505.0197      987.78043
-5524.72     -2571.4122      2846.3202
-7287.0704     -3406.3305      1370.4425
-4070.7648     -2746.6523       2565.333
-4820.9084     -2049.1461      3405.1215
-6236.3156      -3463.659      983.44198
-4105.763     -3535.3038      714.78912
-4264.4816     -3178.1324      1621.1777
-5587.5083     -3109.5235      1919.4957
-4826.6079     -2821.3715      2361.4995
-5139.6152     -3453.6779      878.77678
36.380896     -2787.7322       1419.965
-40.57318     -3256.0867      299.17489
-2935.9642     -3087.0271      2359.8935
-2431.957     -182.86056      5255.0863
-145.93687     -2599.8723      3750.6922
-3706.0986     -1382.4701      4304.4974
-2463.9909     -3942.6954      308.15444
-422.2693     -959.01962      4860.1245
-3680.7175     -2252.9634      3317.5743
-315.00537     -1829.9867      4335.3063
-3256.2426     -661.34025      4963.9791
-1485.353     -550.59643      5067.2722
-761.48443     -2796.8983      2652.5766
-2537.2927     -3693.5921      1268.8237
-1732.1165     -3590.0803       684.9111
-1026.6073     -3132.3145       1216.181
[...]
CELL_DATA 1996
VECTORS faceNormals float
-0.62727759     0.72758205    -0.27775382
-0.61468856     0.59796385    -0.51439014
-0.72185927     0.64971193    -0.23831407
-0.82550717     0.38089049     -0.4164857
-0.5582069     0.67578791    -0.48136864
-0.82809706     0.37114727    -0.42012494
-0.9203787     0.36458465    -0.14135444
-0.57749174     0.55797971    -0.59595463
-0.59810113     0.47365712     -0.6464704
-0.76982787     0.62911233    -0.10762307
-0.75590209       0.565274    -0.33026858
-0.83797423      0.4210287    -0.34718011
-0.78330393       0.529985    -0.32488589
-0.78904452     0.50398329    -0.35129701
-0.99883502   -0.042048964    -0.02367452
-0.9179333    -0.38779313   -0.083755247
-0.94392641       0.321899   -0.073375582
-0.52065564     0.44367503     -0.7294314
-0.66074959     0.27175044    -0.69968684
-0.88238506      -0.406831    -0.23640039
-0.80579348    -0.58691793    0.078893627
-0.9380781      0.3229632    -0.12531658
-0.88256155     0.28676873    -0.37262421
-0.94622592     0.28050268    -0.16116684
-0.918806    -0.16786746    -0.35723388
-0.98875062    0.067900429    -0.13327317
-0.88949808     0.20417054    -0.40878791
-0.27591054    -0.13839394    -0.95116796
-0.16631339    -0.10933058     -0.9799932
-0.042790421    -0.47459336    -0.87916444
-0.012358563    -0.99985491   -0.011722545
-0.14769601    -0.75041483     -0.6442542
-0.22175221    -0.23674632     -0.9459266
-0.95249983  -0.0073550045    -0.30445029
-0.16809677     -0.9826431    0.078460282
-0.27910599      0.2739382    -0.92035738
-0.58963052     -0.8076652  -0.0035743533
-0.77570722    -0.56660593    -0.27791372
-0.20930577     -0.7661844    -0.60757926
-0.087505001    -0.55613005     -0.8264758
-0.41110946     0.24585727    -0.87780591
-0.11515964    -0.09708223    -0.98859157
-0.59171673    -0.80479322   -0.046681692
-0.35426118    -0.93170538    0.080150516
-0.83476025     0.11918766    -0.53755895
-0.59351294     0.22450434    -0.77287786
-0.5064744     0.44285883    -0.73983764
-0.42398125     0.17648009    -0.88831001
-0.07723159    -0.90290894    -0.42283652
-0.059342288    -0.20649832    -0.97664576
-0.82947589    -0.11595769     -0.5463731
-0.16004597    -0.64082683    -0.75081706
-0.02162301     -0.9626304    -0.26995401
-0.49194674     0.18380172    -0.85100254
0.038401868    -0.99073576     -0.1302611
-0.20282621    -0.73132296    -0.65117452
-0.074660076    -0.99406134   -0.079170227
0.20527695    -0.90288892    -0.37769428
-0.14577573    -0.97327345    -0.17744924
-0.1729232    -0.97403559    -0.14612404
-0.65686395     0.31578211    -0.68469805
0.11788105    -0.94482964     -0.3056158
0.16368558    -0.91115364    -0.37816143
-0.4804165    -0.86403476    -0.15047899
-0.27244195    -0.95981361   -0.067329122
0.045930834    -0.94351982    -0.32811691
0.013078395    -0.91013834      -0.414098
-0.00017412364    -0.68926465    -0.72450964
-0.73456126    -0.24244218    -0.63375196
-0.29996678    -0.95109559   -0.073736747
-0.32998736      0.0660959    -0.94166856
-0.16061664     0.12687731     -0.9788281
-0.71859158    -0.58694084    -0.37299677
0.084253175    -0.88995151    -0.44820499
-0.18694273    -0.64042856    -0.74491857
-0.28608347    -0.95343568   -0.095481148
0.12435108     -0.8779247    -0.46236894
-0.23581027    -0.60929073     -0.7570722
0.054270678    -0.98798299    -0.14472144
-0.6923965    -0.36815265    -0.62052455
-0.090823033    -0.84619968    -0.52506883
-0.6488453    -0.18647073    -0.73771841
-0.0042245951    -0.47869369    -0.87797181
-0.060469105    -0.52645817    -0.84804793
0.076805518    -0.57194936    -0.81668528
-0.07178535    -0.92433994    -0.37475663
0.13743753    -0.89491454    -0.42454551
-0.23279031    -0.19367656    -0.95304673
0.059858212     -0.8828792     -0.4657696
-0.23141559     -0.1932648    -0.95346502
-0.56224509    -0.74128809    -0.36656845
-0.25282556    -0.31456612    -0.91494666
0.15522619    -0.92092582    -0.35749191
0.20859386    -0.88504858    -0.41614614
0.082163354    -0.64844576     -0.7568139
-0.47817421    -0.37522662    -0.79407456
-0.36996983     0.24577084    -0.89594588
0.11610458     -0.7096523    -0.69491966
-0.095499743    -0.30417628    -0.94781675
0.022942253    -0.92897177    -0.36943889
0.12870217    -0.86387072    -0.48699397
0.079639196    -0.38608747    -0.91901799
-0.082646834    -0.91806164    -0.38772712
0.093449245    -0.55227376    -0.82840868
-0.50211289    -0.46378223    -0.72992376
-0.065050293    -0.28421656    -0.95655079
0.21203435    -0.86457655    -0.45557527
0.1827962    -0.88999476    -0.41772584
-0.076235528    -0.91892472    -0.38699548
-0.35411019     -0.6848831     -0.6368211
-0.32405909    -0.44283083    -0.83599435
0.074729269     -0.8842922    -0.46091522
0.10868007    -0.85395973    -0.50886288
0.069471802    -0.87761959    -0.47429688
-0.12098311    -0.38488161    -0.91500231
-0.23454338    -0.73301281    -0.63849951
0.065259994    -0.85610225    -0.51266955
0.066611809    -0.65682238    -0.75109735
0.16417252    -0.82379893    -0.54258889
0.030602394    -0.76755338    -0.64025409
-0.063294862    -0.61610362    -0.78511788
0.052561517    -0.91956641    -0.38940327
0.16172623    -0.82410915    -0.54285241
0.24154133    -0.73995145    -0.62779744
0.057896975    -0.77848299    -0.62498974
-0.14106554    -0.69227331    -0.70771334
0.14632809    -0.84041395    -0.52181653
-0.028888448    -0.60333923    -0.79696125
-0.069486818    -0.79824882    -0.59830628
-0.48279188    -0.87040519    0.096471779
-0.069819308     -0.5963151     0.79970843
0.12410009    -0.99214526   -0.015714339
0.26692604    -0.94876877     0.16908079
-0.082865035    -0.78245143     0.61717351
0.31836135    -0.92968867    -0.18527012
0.16110471    -0.91529995     0.36914938
0.10001276    -0.99479211      0.0196496
-0.065848416    -0.44499159     0.89311056
-0.460355    -0.86417057     0.20318093
0.085240442    -0.99610878    0.022390983
-0.26432007    0.067498072     0.96207012
-0.19626686    -0.39930179     0.89556541
-0.11880381    -0.97003932     0.21191832
-0.3037427    -0.93735247     0.17061861
-0.26424519    -0.51325161     0.81654594
-0.12498642    -0.28250593     0.95108822
-0.32150844    -0.39355346     0.86124793
-0.26097674    -0.96218142    0.078090026
-0.39775379    -0.38615765      0.8322705
0.088968158    -0.89387787     0.43939393
-0.059179521    -0.40248547     0.91351149
-0.3270705     -0.8358519     0.44088149
-0.26604073    -0.88906597      0.3725373
-0.16377181    -0.28348704      0.9448883
-0.35060392    -0.79620379     0.49308865
0.023753817    -0.89976139     0.43573523
0.11936842    -0.97013814     0.21114725
-0.33909142    -0.92612018     0.16528284
-0.2651364    -0.86134227     0.43334995
-0.49359684    -0.53060232     0.68907426
-0.27137157    -0.88737684      0.3727195
-0.36380519    -0.89826471     0.24650819
0.01895898    -0.99834465    0.054300246
-0.10146838    -0.93514929      0.3394112
-0.13214471     -0.6177327     0.77520584
-0.30643099     -0.8043651     0.50901555
0.12717051    -0.94489545     0.30166248
-0.31668975    -0.71162293     0.62713667
-0.091133436    -0.60064628     0.79430394
-0.52647995    -0.70222922     0.47926295
0.13090009    -0.77308054      0.6206542
-0.30878374    -0.84716174     0.43239981
0.04591629    -0.88429413     0.46466718
-0.32171447    -0.80944938     0.49121432
-0.22383197    -0.78138732     0.58252305
-0.092513198    -0.77451902     0.62574882
-0.023682018    -0.90189662     0.43130227
-0.24514646    -0.84130872     0.48177054
-0.16621532    -0.60919177     0.77540819
0.017038693    -0.68635904     0.72706324
-0.096196063    -0.70948573     0.69812342
0.080650721    -0.89239446     0.44399054
-0.035058122    -0.78136981     0.62308278
0.13480054    -0.70857497     0.69264011
-0.13044356    -0.68825058      0.7136495
-0.09952975    -0.81516215     0.57061765
-0.099158588    -0.82781902     0.55216233
-0.15571649    -0.86054857     0.48498303
-0.087344572    -0.70664894     0.70215255
0.034185594    -0.75669067     0.65287868
0.14383002    -0.63886361     0.75575539
0.025699429    -0.72553006     0.68771046
-0.10692793    -0.71631565     0.68953485
0.13090671    -0.96578021      0.2239018
0.068228866    -0.65344591     0.75389208
-0.090144426    -0.77232649     0.62879708
-0.088232417    -0.78997277      0.6067603
0.0077042842    -0.84424181     0.53590709
-0.032893226    -0.73070684     0.68189849
0.028906842    -0.45374121     0.89066453
0.016934224     -0.9076096     0.41947354
0.085479059    -0.90686816     0.41265418
0.042180803    -0.38339495     0.92262078
-0.087014685    -0.66490928     0.74183832
-0.17768577    -0.41546432     0.89208585
-0.11409452    -0.42609781     0.89745367
0.01185726    -0.78518153     0.61915213
0.059213518    -0.91651483     0.39559363
-0.020282731    -0.56454185      0.8251552
0.021980505    -0.62686864     0.77881485
-0.0072608005    -0.72988336     0.68353315
-0.070036238    -0.76965609     0.63460573
-0.00079490227     -0.8481098     0.52981991
0.0061322827    -0.54346292     0.83941078
0.051877161    -0.42831515     0.90213906
-0.0051680214    -0.77658462     0.62999177
0.059114604    -0.86285238     0.50198728
0.11675313    -0.80745346     0.57826259
0.053933289    -0.43333183     0.89961921
0.015584265    -0.95109178     0.30851509
0.13198987     -0.7209012     0.68035295
0.015671917    -0.98534512     0.16985105
0.11404802    -0.66334423     0.73957249
0.087622063    -0.86846119      0.4879524
-0.080960818    -0.51864981     0.85114495
0.11751842    -0.64213456     0.75753061
-0.048822379    -0.89090656     0.45155495
0.035308954    -0.79423968     0.60657779
-0.034336127    -0.64271828     0.76533277
-0.0094171555    -0.77086922     0.63692383
0.018809946     -0.6749526     0.73762129
-0.012699808    -0.56693023     0.82366791
-0.0026613559     -0.5470881      0.8370708
-0.073687165    -0.74963727     0.65773412
0.018198368    -0.78688976      0.6168252
0.085754722    -0.73485292     0.67278326
0.041117489    -0.66607073     0.74475441
0.01920168    -0.76315757      0.6459271
0.019422675    -0.42778346     0.90367255
-0.015597537    -0.70068079     0.71330439
0.054860746    -0.78043526     0.62282509
0.10079074    -0.69927271     0.70771386
-0.033970866    -0.78207674     0.62225553
0.048107322    -0.66810198     0.74251292
0.06526163     -0.7711482     0.63330196
0.025637031    -0.55494365     0.83149281
-0.023889595    -0.74982156     0.66120868
-0.007877876    -0.53520681     0.84468432
-0.17954547    -0.31364795     0.93240999
0.013978411    -0.52547035     0.85069707
0.006543268     0.34232472     0.93955892
-0.024684403    -0.49179581     0.87036059
-0.11359451    -0.46133548     0.87992378
-0.090485591     0.32153561     0.94256417
-0.088755541    -0.22177042     0.97105115
-0.18921802     0.24561569      0.9507205
-0.048759418    -0.50814529     0.85989004
-0.026302679   0.0031791175     0.99964897
-0.14129581    -0.19526555     0.97051886
-0.072520375     0.49046398     0.86843876
-0.15314209     0.53406978     0.83145473
-0.066283051    -0.23607594     0.96947135
-0.10366199    -0.23459314      0.9665507
-0.066732525    -0.25783268      0.9638823
-0.055539987     0.25218512     0.96608384
0.014498031    -0.26015019     0.96545931
-0.13066451    -0.19544447     0.97197132
-0.10896951    0.086700915     0.99025683
-0.024057637     0.24174423     0.97004173
-0.16992534    0.081945385     0.98204396
-0.17437663     0.47528061     0.86238108
-0.14486696    -0.18620339     0.97177254
-0.05344429     0.11366933     0.99208013
-0.17273203     0.16049852     0.97180444
-0.10438479     0.50320304     0.85784061
-0.055111051    -0.22516807     0.97276005
-0.14390751    0.015134667      0.9894754
-0.027066505    -0.17214504     0.98469969
-0.1035306    0.077299762     0.99161795
-0.099659565     0.71152017     0.69556238
-0.19754608     0.80980986     0.55243419
-0.2161071     0.72440899     0.65462152
-0.11377992     0.61927622     0.77688551
-0.19977232     0.24523824     0.94865654
-0.3169458     0.74439124     0.58773042
-0.1756153     0.59122645     0.78715345
-0.22595308     0.46092048     0.85819434
-0.36365229     0.12232521     0.92346822
-0.20546622    -0.26293122     0.94268277
-0.24283918     0.42048552     0.87419738
-0.24884226     0.77902175     0.57550207
-0.1570731    -0.30938027     0.93787627
-0.34549924     0.41751881     0.84042151
-0.45533776      0.8519729     0.25847572
-0.12668576     0.84625106     0.51750349
-0.1347338    0.038492217     0.99013391
-0.34480847     0.91200179     0.22217078
-0.32704456     0.16157084     0.93109437
-0.29490767  -0.0071976412     0.95549864
-0.34120498     0.62481797     0.70226894
-0.41570456     0.88846917     0.19445375
-0.25192594      0.7967334     0.54931704
-0.30261886     0.62924495     0.71587193
-0.25547282     0.79626727     0.54835397
-0.14014991     0.40238491     0.90467916
-0.31488755     0.66318143     0.67899649
-0.26027835      0.5243184      0.8107684
-0.23593819     0.69450936      0.6796984
-0.30690342     0.72643435     0.61490115
-0.12223403     0.52967588     0.83934636
-0.15042746     0.39772916     0.90508734
-0.20354178      0.6732104     0.71088571
-0.23822497     0.67555922      0.6977597
-0.35237258     0.86141285     0.36578883
-0.52470879     0.50373338     0.68624585
-0.18718127     0.76456691     0.61676625
-0.22198455     0.67274784     0.70578552
-0.2408408       0.777523     0.58090764
-0.39137499     0.50873454     0.76682122
-0.30000579      0.5776489     0.75915629
-0.23771826     0.67773126     0.69582352
-0.42950112      0.6942829     0.57749462
-0.23669363     0.67350072     0.70026631
-0.38112183     0.48579269     0.78660766
-0.19543682     0.63563148     0.74684475
-0.42987583     0.74919729     0.50389502
-0.26524733     0.66398025     0.69912379
-0.22940752     0.79656734     0.55933233
-0.2845869     0.44219564     0.85057234
-0.20444978     0.67680628     0.70720121
-0.1024498     0.72419385     0.68194377
-0.18271351     0.59198771     0.78496263
-0.34366266     0.71420408     0.60976102
-0.23544281     0.70410828     0.66992404
-0.24777898     0.77520238     0.58109109
-0.10854185     0.81032279     0.57584341
-0.35117561     0.68837803     0.63467423
-0.23638512     0.70290115     0.67085919
-0.34511846     0.71347164     0.60979625
-0.54391985      0.6531475      0.5268297
-0.23992062     0.76186847      0.6016598
-0.19649367     0.70902449     0.67725514
-0.2076429     0.72938878     0.65182546
-0.24995011     0.76217302     0.59717437
-0.19005502     0.86687051     0.46088459
-0.26306458     0.75480743     0.60088499
-0.41255802      0.7878204     0.45731269
-0.35882566     0.90903172     0.21190913
-0.43414473     0.90026604    0.032239879
-0.44917602     0.47176643     0.75873404
-0.25149665     0.73596982     0.62856811
-0.36974243     0.85397465     0.36608447
-0.64279978     0.67468677     0.36277568
-0.35998104     0.92042139     0.15244053
-0.44027658     0.89781964   0.0087421466
-0.42368577      0.4966286     0.75752915
-0.65529477      0.6528733     0.37992792
-0.6719127     0.69453828     0.25719622
-0.34408183     0.62747855      0.6984829
-0.52382891     0.75832567     0.38800188
-0.23181832     0.10596541     0.96697032
-0.5610087     0.82610662    0.053076277
-0.12249901     0.80442665     0.58128458
-0.31582524     0.93025252     0.18677439
-0.41648228     0.48222619     0.77071423
-0.39834824     0.50147445     0.76801175
-0.32295195     0.86056263     0.39387054
-0.39062858     0.77688241      0.4938249
-0.43870619     0.85050067     0.29014737
-0.34259545     0.87106237     0.35196407
-0.40803266     0.91198257    0.042392677
-0.46529542     0.60149505     0.64938731
-0.33451236     0.93247229      0.1363705
-0.57789093     0.78608006      0.2193632
-0.24408962     0.72239014     0.64697198
-0.45464988     0.60802639      0.6508436
-0.48446491     0.56180329     0.67057499
-0.48963889     0.81768069     0.30274089
-0.43361454     0.85106605     0.29608277
-0.41461023     0.59556576     0.68804054
-0.24118545      0.9076015     0.34364093
-0.41391077     0.83165914     0.37016342
-0.25655209     0.88463823      0.3893536
-0.49976707     0.77618821     0.38440179
-0.49431872     0.72005662     0.48699843
-0.38725951     0.90779377      0.1610607
-0.099931646     0.71038331     0.69668444
-0.044326923     0.99749318    0.055158639
-0.087493336     0.88761715     0.45219543
-0.51644261     0.84428793     0.14305564
-0.11885156      0.8382351     0.53219942
-0.19626404     0.67885988      0.7075519
-0.39395836      0.9169353   -0.063454381
-0.12548126     0.70357103     0.69945855
-0.27411103     0.79326707     0.54368235
-0.46142439     0.87645366      0.1375373
-0.43003374     0.80151988     0.41549592
-0.19862692      0.6866727     0.69930534
-0.18621686     0.67892723     0.71019793
-0.22906494     0.70743286     0.66863143
-0.15877474     0.73516255     0.65903461
-0.30903189     0.88567744     0.34651805
-0.15730197      0.7058425      0.6906826
-0.41896036     0.88724904     0.19303201
-0.19664322     0.66674508     0.71887582
-0.24271285     0.96443355     0.10468234
-0.29351739     0.91556265     0.27494104
-0.32453662     0.70031727     0.63579219
-0.38190149     0.86607962     0.32257921
-0.35212087     0.82226025     0.44710062
-0.20668708     0.72235053     0.65991678
-0.11641077     0.99235624   -0.040958841
-0.17042371     0.70778798     0.68555957
-0.17449249     0.71980635     0.67188629
-0.45339902     0.77156932     0.44621756
-0.15689426     0.92078367     0.35712969
-0.15276139     0.68962008     0.70787577
-0.49459241     0.83669551     0.23519985
-0.30768928     0.72158148     0.62019954
-0.19770432     0.66728958     0.71807912
-0.35456627     0.81954334     0.45014606
-0.23163685     0.71735493     0.65707402
-0.1833315     0.73922478     0.64802491
-0.42214435     0.83141186     0.36131492
-0.018057279     0.86625472     0.49927617
-0.3636495     0.82950104     0.42389511
-0.057802324    -0.95963232     0.27525389
-0.060875226    -0.62312443     0.77975006
-0.13803133    -0.56114966     0.81612402
-0.080775236     -0.8010244     0.59315704
-0.11074782    -0.72781059     0.67677668
-0.11182348    -0.94172689      0.3172475
-0.1841194     -0.8791462      0.4395475
-0.045687328    -0.98454498    -0.16906757
-0.056211495    -0.98885978     0.13782818
-0.099671076    -0.80737791     0.58155532
-0.040415431    -0.98817971      0.1478765
0.068190507     -0.9882013     0.13714313
-0.085246256    -0.93198519     0.35233037
0.032419149    -0.86596351     0.49905531
-0.083262941    -0.74841607     0.65798227
-0.0011154019    -0.99573237    0.092281132
-0.023426426    -0.90744781     0.41951124
-0.14906188    -0.96927539     0.19566751
0.057692603    -0.76458697     0.64193328
0.033924915    -0.86530561     0.50009529
0.1238767    -0.79799383     0.58979692
-0.018370684    -0.99506346    0.097525524
-0.067572918    -0.99291213   -0.097772227
0.019028676    -0.99433613     0.10456374
-0.015753902    -0.93119262     0.36418692
0.023136239    -0.94025356     0.33968804
0.037320274    -0.86530046     0.49986229
0.079417206    -0.93198595     0.35368785
0.040003075    -0.94341488     0.32919314
0.060347351    -0.88052325     0.47014572
0.023790744    -0.94606805     0.32309323
0.061302932    -0.32430858     0.94396287
0.22372985    -0.90466034     0.36267703
-0.32697121     -0.8637674     0.38340018
-0.25974131    -0.92610113     0.27362592
0.016932768    -0.51450845     0.85731811
-0.047759143    -0.33469577     0.94111519
-0.044700835    -0.46191295     0.88579809
0.24410029     -0.8910246      0.3827404
-0.063769449    -0.52081253     0.85128595
0.090178414    -0.85609744     0.50888607
-0.044221782    -0.61030582     0.79093062
0.2741418    -0.94647016     0.17041277
-0.044713173    -0.54200805     0.83918294
-0.30575207    -0.92704017     0.21705344
0.30678217    -0.91536177     0.26076336
0.023463804    -0.40296141     0.91491614
-0.02866451    -0.41452008     0.90958862