# vtk DataFile Version 3.0
vtk output
ASCII
DATASET UNSTRUCTURED_GRID
POINTS 4000 float
-15495.659     -21.866824     -2934.7514
-16021.838      61.282625     -2461.5455
-16369.942      57.766762     -2116.8533
-16623.678      116.00067     -1682.6607
-16321.154      1735.8649      107.26381
-14503.29      3716.1147      72.379807
-14740.715       2889.515     -597.25589
-15554.976      1147.5731     -2130.4767
-15612.329      314.43295     -2662.9371
-15994.882      1056.5361     -1759.1855
-16810.697      613.66775     -682.27346
-16790.945      257.33397      -1164.609
-14626.785      3220.0984     -293.70833
-15851.288      600.65776     -2268.2771
-15178.788      2573.3772     -720.07008
-15587.647      1883.9505     -1406.3548
-15650.007      1475.1769     -1729.9711
-17059.304      122.70678     -733.94815
-16786.748      922.32387     -201.97799
-17110.212      266.21983     -209.84266
-15610.769       2434.014     -298.82334
-16117.934      1845.1262      -407.3941
-16217.708      529.25224     -1880.4404
-16468.039      1426.9007     -344.85281
-15058.98      2775.2697     -209.06064
-15740.927      2089.9288     -856.18622
-15862.91      2141.4735      -366.7495
-15924.246       1532.325     -1324.8681
-16535.576      1112.1949     -680.90567
-16419.627      690.85148     -1472.2506
-16189.781      1531.6696     -810.09776
-16286.017      1161.3495     -1187.3145
-16595.829       806.4857     -1025.7403
-17450.562     -753.69186      77.842534
-17512.529     -1869.3844     -28.823463
-16599.892     -3133.8592     -181.27183
-17062.277     -2718.5237     -625.85136
-17268.507     -2415.9726      -897.0738
-17106.178     -1472.7341     -1776.1931
-15896.352     -294.72129     -2731.8367
-16955.23     -240.16672     -1384.9344
-16983.916     -2787.2745     -186.21336
-17519.562     -1489.3199     -308.00603
-17369.927     -2399.4298     -283.81903
-17309.685     -1956.1552     -1167.8691
-17223.561     -1561.2308     -1404.4926
-16685.686     -735.39328     -2209.4727
-16426.912     -369.12434     -2354.4854
-16934.426     -1023.9492     -1938.4739
-17463.844     -1000.4186     -356.65311
-16862.943     -474.22457     -1796.6214
-17100.318      -257.6242     -970.36178
-17316.651     -390.60517     -411.01226
-17460.702     -1908.8304     -638.46432
-17147.376     -1061.7825     -1481.8805
-17386.179     -1369.4685     -952.04477
-17195.99     -693.66019     -1065.1729
-15490.155     -3617.6526     -45.512146
-14997.577     -3782.3773     -39.863702
-12835.359     -4169.4238      52.829221
-12058.666     -4109.9134     -26.170308
-8867.3053     -1399.7696      -4364.425
-10005.918     -40.751842     -4702.1222
-11876.013     -96.138463     -4321.5357
-12418.346     -52.671923     -4263.6349
-13818.072      5.9013567     -3790.9144
-15040.676      -72.16476     -3211.8084
-11056.735     -3426.9419     -1285.7147
-8920.7478      -3607.961     -187.58376
-9201.1393     -3317.6996     -1350.5051
-14983.816     -3788.9811     -678.30382
-16024.039       -3348.68     -1629.2863
-17170.801     -2455.7882     -1416.3705
-12620.375      -578.6367     -4201.3421
-14731.65     -3630.1681     -1844.5564
-10913.521      -3848.491     -601.13503
-9996.1085     -972.35286     -4290.6891
-15761.721     -2849.8474     -2695.7669
-9140.7805     -319.21458     -4757.7874
-11618.983     -4171.8436      -237.1574
-11069.13     -4088.8647     -168.58719
-13207.97     -4143.1208     -216.53736
-9039.1482     -1006.4812     -4564.2759
-8934.1542     -2593.4129     -3025.0778
-8839.8935      -2887.992     -2644.9333
-16038.628     -3440.1942     -156.48029
-12724.314     -212.79314     -4177.9904
-8528.0154     -3545.2323     -638.87609
-11504.006     -89.383852     -4383.2085
-8910.1709     -3190.8376     -1746.1677
-14726.386     -174.83183     -3392.7425
-16312.003     -721.52378     -2608.9606
-9016.7631     -2172.0056     -3510.7275
-16875.506     -1381.4164     -2155.1521
-8851.0324     -3059.8534     -2219.1738
-17139.901     -1965.2274     -1603.1073
-16603.572      -1079.773     -2375.7991
-14348.539     -222.13457     -3606.0876
-8665.801      -3344.354     -1241.3219
-11137.05     -249.75399     -4446.9144
-10078.455     -3810.6928     -117.97699
-9432.6002     -3661.5479     -183.18023
-10685.018     -354.40928     -4485.7295
-16905.197     -1759.4223     -2138.7142
-9262.7687     -1355.3948     -4340.4034
-14542.298     -3923.2714     -368.02055
-15254.205     -3730.7486     -403.55427
-12656.043     -4110.7714     -369.07352
-9005.1843     -3451.1703     -941.86229
-9107.0755     -1696.9058     -4000.8507
-13580.862     -434.32282     -4009.2787
-14035.457     -442.67975     -3781.0877
-13060.706     -327.28813     -4109.1471
-10234.21     -461.48399     -4580.1246
-10526.938     -3817.6114     -378.33818
-13663.302      -4101.264     -306.18979
-16689.842     -3076.6525     -683.25483
-15719.822     -3592.4953      -506.3341
-15987.321     -715.49972     -2881.7634
-12098.343     -4012.9433     -563.02546
-16263.067     -3365.4272     -643.91439
-16861.322     -2839.7063      -1088.224
-11555.714     -521.31144     -4349.8143
-9221.7156     -3539.4737     -581.19428
-16932.781     -2249.9716     -1987.8548
-15612.887     -609.22534     -3092.9699
-9963.7804     -3615.3193     -619.96145
-11476.076     -3955.5253     -661.61993
-16643.169     -1467.8452     -2509.0565
-16147.653     -1128.3319     -2933.5963
-9442.1958     -779.20875     -4640.3436
-9324.1477      -2840.983     -2602.6858
-9234.835     -3037.5108     -2118.1577
-14072.631     -4001.7307     -611.08153
-9768.7714     -504.02657     -4639.2988
-14925.229     -583.39022     -3461.7023
-9548.3028     -2415.7821     -3127.6392
-9569.4293      -1939.204     -3599.7485
-13119.338     -778.31774     -4120.0405
-14000.609     -819.30017     -3901.5459
-14443.116     -770.48693     -3738.6841
-9437.2354     -3162.3671      -1785.275
-9569.8911     -1050.9523     -4414.7328
-12152.809     -786.53508     -4241.1497
-13351.491     -4000.7892     -782.54348
-10547.621     -3652.9491     -769.16026
-13591.051     -879.90958     -4037.2135
-11085.232     -878.17418     -4258.8735
-15926.358     -3507.0095     -1043.9396
-9677.5415     -1437.0679      -4030.843
-15442.897     -3676.4979     -805.98879
-16816.049     -2766.4177     -1688.9298
-11941.365      -3783.547      -984.9921
-16456.039     -1911.9605     -2595.7723
-12719.997     -1007.5837     -4171.4888
-10475.622     -893.86706     -4192.4321
-16461.319     -3206.1368     -1257.6331
-12562.761     -3871.8395      -1006.102
-11588.346      -1052.926     -4239.8866
-9570.4216     -3412.5831     -1007.1165
-14610.006     -3850.0022     -1019.7005
-9768.866     -2953.0061     -2220.9598
-9697.8205     -3300.6819     -1411.8454
-10984.028     -3660.3081     -920.80721
-15437.98     -1134.5632     -3338.5799
-14023.258     -3906.9989     -1117.7294
-11482.023     -3694.3179     -1005.0179
-13236.537     -1250.9506      -4018.659
-13840.846     -1365.2476      -3897.332
-10066.882     -1740.0862     -3667.2401
-10005.595      -2115.525     -3371.0163
-13129.164     -3835.2498     -1244.3964
-10171.666     -1357.8371     -3990.2245
-13608.065     -3871.7516     -1268.5512
-14792.532     -1181.2051     -3644.8781
-14322.095     -1306.9129     -3787.8331
-15813.553     -1614.2273     -3234.1244
-10334.759     -3412.9993     -1180.3142
-15347.808      -3642.602     -1298.8938
-16587.219      -2588.816     -2291.9319
-11370.57     -1463.6746     -4036.2003
-10749.549     -1454.6127     -3941.7635
-11597.594     -3499.8851     -1344.1568
-10049.876      -3131.222     -1749.0379
-11986.584      -1443.841     -4097.2663
-16439.599     -2981.8753     -1916.7641
-16267.282     -2504.9643     -2623.8377
-14376.277     -3772.6092     -1519.1396
-15927.024     -2209.7438     -2922.0892
-10214.288     -2354.6257     -3090.7851
-14870.712     -3707.5605     -1517.8225
-10034.839     -2694.3001      -2692.428
-12114.401     -3563.7744     -1425.6974
-12469.662      -1885.307     -3835.5976
-12629.859     -1404.2913     -4083.7004
-13503.257     -1569.1808     -3884.4603
-10406.424     -1615.9573     -3789.3688
-14590.559     -1618.4428     -3641.2806
-15114.07     -1604.0007     -3509.6996
-12719.36     -3638.3502     -1554.8173
-13367.758     -3701.4446     -1628.4546
-13900.354     -3747.1496     -1608.2726
-16073.308     -3014.8868     -2224.7452
-14227.665     -1899.1709     -3685.3725
-11214.286      -3233.882     -1754.5244
-15384.099     -2001.6962     -3293.1106
-10675.143     -3170.6362      -1699.549
-11774.508     -1785.9931     -3887.0895
-13113.892      -1768.728      -3873.902
-15682.388     -3440.4181     -1909.5954
-13508.917     -3524.9785     -2013.7301
-12924.209     -3496.3065     -1979.6374
-15215.202      -3536.595     -1893.2032
-10681.692     -2603.0886     -2927.6294
-13632.353      -1940.054     -3750.6273
-12295.244     -3398.5408     -1934.4894
-10537.55     -2915.8112     -2273.4174
-10601.28     -2028.3572     -3526.2786
-11223.098     -1913.4894     -3720.5887
-11741.699     -3320.9733     -1872.2816
-14222.62     -3548.7815     -2040.7938
-14857.192      -2048.245     -3480.8286
-14503.843     -2438.9947     -3354.6364
-11833.761     -2160.5051     -3526.8573
-15455.007     -3276.5908     -2324.5942
-12031.76     -3156.0081     -2291.5136
-12610.692     -3298.9726     -2295.3442
-13138.553     -3376.8278     -2257.1305
-14869.781     -3423.8827      -2255.557
-11194.96     -2362.6227     -3225.2758
-15229.382     -2534.9206     -3121.4769
-13031.74     -2235.8318     -3577.7932
-11004.507     -3044.8812     -2121.2462
-13674.932     -3258.1321     -2513.2795
-12457.247     -2311.7151     -3535.6061
-11148.365     -2806.6464     -2589.7755
-13046.225     -3194.5823     -2555.8468
-11479.233     -3033.0774     -2220.9264
-15079.354      -3084.622     -2702.5238
-13629.107      -2505.094     -3397.7214
-12150.76     -2528.6825      -3296.843
-14473.234     -3203.2921     -2637.4356
[...]
CELL_DATA 7996
VECTORS faceNormals float
-0.60559043      0.3624897     -0.7084218
-0.8318558     0.44844073     -0.3269814
-0.4427896     0.43714256    -0.78284338
-0.8540733     0.49022662    -0.17388693
-0.53639126     0.82033202    -0.19834262
-0.59274218     0.76235598    -0.25975001
-0.79841238     0.58544443    -0.14068576
-0.57300777     0.56247754    -0.59605462
-0.52531012     0.66554641    -0.53018606
-0.67131347     0.52029829    -0.52785217
-0.47515531     0.44749722     -0.7576105
-0.8652478     0.41214151    -0.28545686
-0.72305177     0.65309835    -0.22507482
-0.61922928     0.49006885    -0.61350438
-0.7029975     0.61509661    -0.35700234
-0.66446254     0.61999733    -0.41724435
-0.81369739     0.43796586    -0.38220737
-0.45301174     0.56858472    -0.68665259
-0.61678805     0.66652579    -0.41870738
-0.77518609     0.60632166    -0.17737131
-0.92017699     0.34556731     -0.1840042
-0.6744713     0.69833484    -0.23961828
-0.87084196     0.43213881    -0.23428687
-0.63725878     0.43052995    -0.63917541
-0.7276106     0.48044982    -0.48964353
-0.76785967     0.61703943      -0.172203
-0.6054503     0.53959552    -0.58503556
-0.48326902     0.84328406    -0.23520854
-0.81821559     0.43008085    -0.38151502
-0.84052347     0.34849149      -0.414818
-0.56734766      0.7533324    -0.33257619
-0.59856708     0.43117922    -0.67513105
-0.48701825     0.84528748    -0.21977783
-0.44750743     0.59605729    -0.66667294
-0.69566311     0.60103237    -0.39346274
-0.86326112     0.45918751    -0.20958783
-0.69527394      0.4268039    -0.57830146
-0.70389223     0.57819817    -0.41258043
-0.67592452     0.49294396    -0.54784331
-0.71482133     0.52638024    -0.46038495
-0.74988594     0.58021488    -0.31783921
-0.84773971     0.46136507    -0.26168616
-0.71738234     0.65127903    -0.24738269
-0.81401704     0.45074979    -0.36633439
-0.8455448     0.46733656    -0.25816765
-0.75194513     0.57848404    -0.31612457
-0.73621106     0.56063863     -0.3790483
-0.71707784     0.44950864    -0.53267379
-0.70527741     0.66495355     -0.2458059
-0.72960467     0.43051499    -0.53135099
-0.81424108      0.3965241    -0.42400484
-0.64341325     0.56601088     -0.5154135
-0.77392447     0.53234861    -0.34299542
-0.7367532     0.49085038    -0.46503831
-0.76855158     0.47668299    -0.42673386
-0.86340524      0.3882426    -0.32217863
-0.77574786     0.53782773    -0.33008573
-0.84367335     0.46632526    -0.26600004
-0.72929164     0.57197905     -0.3754646
-0.78019206     0.52948494    -0.33308563
-0.96380853    -0.26620847    0.014358307
-0.91629564     0.27801289    -0.28829003
-0.81249456     0.40948492    -0.41493938
-0.99663012   -0.059735551   -0.056214414
-0.71078219    -0.70321343    0.016719881
-0.772165    -0.62568317    -0.11082325
-0.96571683     0.24648437   -0.081464421
-0.57955092     0.35328436    -0.73437789
-0.7595062     0.39082321    -0.52000727
-0.63447223     0.43885924    -0.63627632
-0.76404862     0.40646534    -0.50101461
-0.71262109     0.24290083    -0.65815679
-0.86007963     0.15319715     -0.4866145
-0.98885671     0.10189832    -0.10853176
-0.94959391    -0.04405812    -0.31037121
-0.57412046     0.35705091    -0.73681772
-0.70768502    -0.70647697    -0.00849678
-0.86933754     -0.4833041     0.10329268
-0.94173757      0.3238305   -0.090907405
-0.89119693     0.21846837    -0.39754195
-0.78638206      0.1063893    -0.60851013
-0.91296616     0.26734257    -0.30825434
-0.90840809     0.24177085    -0.34108884
-0.96934233     0.22521375   -0.098255851
-0.97114172    -0.22867432   -0.067762848
-0.94103933    -0.23024204    -0.24785799
-0.94745056    -0.28305506    -0.14905459
-0.94078385   0.0020462644    -0.33900084
-0.99386987   -0.076805079   -0.079521509
-0.92584203    0.084140788    -0.36842485
-0.94171558      0.2034196    -0.26794073
-0.77262538     0.33150651    -0.54143647
-0.89460871     0.19741405    -0.40087772
-0.94005112     0.22108671    -0.25966239
-0.9059496       0.259261    -0.33472236
-0.9552962     0.10276634    -0.27721516
-0.96192603   -0.025308004    -0.27213565
-0.9797484    0.019512454    -0.19927952
-0.82855462     0.23846179    -0.50658979
-0.91882313     0.26516345    -0.29232242
-0.931163      0.2124505    -0.29631109
-0.97826862     0.09305421    -0.18528741
-0.26986566    -0.12633259    -0.95457457
-0.081455065    -0.99426939   -0.069234755
-0.1674906   -0.061701424    -0.98394097
-0.24395754    -0.20269854    -0.94836597
0.1026821     -0.9893097    -0.10355051
-0.23517307    -0.96827943   -0.084430878
0.076898812    -0.40992869     -0.9088702
-0.11070842    -0.23915717     -0.9646489
-0.15373891    -0.94483271    -0.28923259
0.33327304    -0.94282901  -0.0015936608
-0.19348643    -0.17493959    -0.96538031
-0.15450517    -0.98092734     0.11793939
0.022683705    -0.99148959    -0.12819452
-0.12543547    -0.82697549    -0.54806705
-0.2065371    -0.75612936     -0.6209757
-0.23533259     0.11083962      -0.965574
-0.23707274    -0.12841265    -0.96296766
-0.22720531    -0.13687327     -0.9641802
-0.74630671    -0.64737817    -0.15468614
-0.66982167    -0.74167278    0.035502456
-0.96816911    -0.18560107      -0.167931
-0.21255849      -0.976576   -0.033439655
-0.094037701    -0.95637442    -0.27659515
-0.090899923    -0.92263556    -0.37480773
-0.75878147     0.24158418    -0.60488657
-0.14702166    -0.28356671    -0.94761519
-0.93162958   -0.014403579    -0.36312375
-0.46778777     0.31573638    -0.82552113
-0.59158444     0.31768122     -0.7410172
-0.31680009     -0.9442607    0.089495461
-0.22090523     -0.9752717   0.0067814208
-0.29708114     -0.9548497  -0.0022006152
-0.92928055   -0.078832249    -0.36086443
-0.23779259     0.29092321    -0.92672454
-0.18085634    -0.98298341   -0.032165162
-0.16090301    -0.10180377    -0.98170577
-0.69224371    -0.72158679    0.010542377
-0.24539378    -0.71827825    -0.65104397
-0.7244413      0.1520008    -0.67236936
0.07612036    -0.99449641   -0.071990118
-0.85812179    0.045161008    -0.51145623
-0.89928084   -0.088926547    -0.42823596
-0.57538761     0.34714854    -0.74055181
-0.16228592   -0.056735289    -0.98511136
-0.091108503    -0.96418436    -0.24909386
-0.10096666    -0.79837489    -0.59363564
-0.42017439     0.27704677    -0.86411722
-0.73770472    -0.66943283   -0.087472535
0.036715    -0.11580856    -0.99259276
-0.12880526    -0.79907343    -0.58727409
-0.1128773    -0.75989295    -0.64017296
-0.20499132    -0.97874716   0.0057052177
-0.10731836    -0.48727286    -0.86663021
0.10724886    -0.97698315    -0.18439522
-0.24911637    -0.34046441    -0.90665595
-0.19309619   -0.052633639     -0.9797671
-0.38803182     0.16819137    -0.90616939
-0.20215266   0.0050777652    -0.97934086
-0.24298888    -0.18328042    -0.95255692
0.19775146    -0.92792921    -0.31597745
0.33189947    -0.89465806    -0.29904798
-0.69767414    -0.70662705    -0.11802122
-0.26312595   -0.013181591    -0.96467144
-0.30334062    -0.94767883    0.099444955
-0.48022165    -0.87279788    0.087241175
0.098916188       -0.96484    -0.24351459
-0.77129031     0.27568945    -0.57367812
-0.53391142     0.38386305     -0.7533842
-0.19720868    -0.72183593    -0.66337141
-0.21190053    -0.96434831    -0.15852601
-0.4444999     0.28285466    -0.84994887
0.19998853    -0.92611116     -0.3198792
0.10005504    -0.98002796    -0.17185515
-0.59902061     0.38053342    -0.70453433
-0.14566939    -0.92585217    -0.34868064
-0.45900158     0.30434867    -0.83467924
-0.44283532     0.19543121    -0.87504487
-0.14179302     -0.2039399    -0.96866055
-0.39436696     0.27968715    -0.87535696
-0.11578776    -0.98496461     0.12821043
0.016178596    -0.94741321    -0.31960361
-0.32624623    -0.93870357     0.11135078
-0.90126288   -0.080259404    -0.42577417
-0.42731492     0.34876241    -0.83412633
-0.11658271   -0.072532896    -0.99052887
0.012956447    -0.95490047    -0.29664327
-0.15632848   -0.052166511    -0.98632655
-0.13751323    -0.15948379     -0.9775761
-0.83061329    0.041092374    -0.55533142
-0.12262846    -0.72730438    -0.67527076
-0.030876262    -0.95440285    -0.29692064
-0.31488499     0.27404285    -0.90870675
-0.12189044    -0.91927694    -0.37426278
-0.023335382    -0.93130279    -0.36349769
0.010864013    -0.89239173    -0.45113076
-0.28559614    -0.95833844   0.0047195463
-0.0098716    -0.97034884    -0.24150709
-0.043367394    -0.97144014    -0.23328806
0.21291923    -0.88456985    -0.41497179
-0.56078547    -0.82793842    0.006133418
-0.027113021    -0.94593054    -0.32323412
-0.029161142    -0.96671439    -0.25419072
-0.19811686     0.04939814    -0.97893285
-0.90515772    -0.10023177     -0.4130897
0.18235738     -0.9296461    -0.32016232
-0.12897319    -0.95141744    -0.27959035
0.18511464    -0.89938521    -0.39602882
-0.73094324    -0.17942482    -0.65842897
-0.39407115    -0.91818224    0.040611582
-0.53213088     0.30579169    -0.78951135
-0.61129284     0.32784672    -0.72030382
-0.29328561    -0.95601822   0.0035669409
-0.21169008    -0.42806437    -0.87860583
-0.75000484     0.20009545    -0.63043996
-0.18135337    -0.69614416    -0.69461807
-0.43935877     0.23652471    -0.86661406
-0.30736347     0.26397257    -0.91424623
0.11103248    -0.96510095    -0.23717491
0.017676884     -0.9478994      -0.318079
-0.17893588    0.046996546    -0.98273764
-0.056048753    -0.96889248    -0.24105164
-0.17592868    -0.57856094    -0.79643979
0.29064544    -0.87693484    -0.38276692
-0.71028415    -0.69030478    -0.13775248
0.055927277    -0.93750663    -0.34344353
-0.18628124     0.06571648     -0.9802962
-0.73035309    -0.16293295    -0.66335301
-0.036117187    -0.96545402    -0.25805828
0.031486006    -0.26657694    -0.96329921
-0.021142368    -0.98758268    -0.15567099
-0.034363606    -0.28909965    -0.95668205
-0.48017224     0.23521454    -0.84504955
-0.46548166     0.24291949    -0.85106812
-0.12694132      -0.972705    -0.19424439
-0.72912825     0.28763605    -0.62099718
-0.60627271    -0.10144656    -0.78875979
-0.38630632     0.33318607     -0.8600898
-0.00011721751    -0.96384817    -0.26645205
-0.39727224    -0.46847138    -0.78911934
0.19784342    -0.82503614    -0.52931404
0.088817221    -0.91662511    -0.38975621
0.16727174    -0.88675536    -0.43091194
-0.30486766    0.066533066    -0.95006792
-0.090474088    -0.19633762    -0.97635341
0.085289035    -0.45016067    -0.88886509
-0.75724977     -0.4468642    -0.47632464
-0.20842015    -0.97216202    -0.10706094
-0.13215044     -0.7971018    -0.58920708
-0.087157628    -0.79199109    -0.60427945
-0.26383299    -0.66038807    -0.70305031
-0.40873616    -0.58363919    -0.70164096
-0.38599619    -0.92249898   0.0016025135
0.0057346335    -0.87944562    -0.47596483
0.034071277    -0.20438461    -0.97829754
-0.31820815    -0.94759447   -0.028430604
-0.23206966    -0.97244399   -0.022279327
0.29154005    -0.87589519    -0.38446328
-0.14928368    -0.29473477    -0.94384628
-0.29361753    -0.54205843    -0.78737628
0.15823775    -0.90691165    -0.39047674
0.11354935    -0.92290075    -0.36791405
-0.30438143    -0.73780387    -0.60249266
-0.69750161    -0.70677107    -0.11817855
0.2131466    -0.82068901    -0.53013025
-0.070785884    -0.91904253    -0.38775017
-0.085957898    -0.70308398    -0.70589245
-0.077189542    -0.92878453    -0.36249286
0.04442589    -0.93750406    -0.34512674
-0.55784853    -0.82920379   -0.035015563
-0.25335529    -0.56354833    -0.78627246
-0.70019549    -0.70044203    -0.13822891
-0.27590165    -0.95381376    -0.11881748
-0.73380823    -0.15472969    -0.66150147
-0.34457808     0.00826994    -0.93872123
-0.32645914    -0.10278543    -0.93960608
-0.23847201    -0.96713151     -0.0882482
-0.13265123    -0.89859495    -0.41824725
-0.15454948    -0.54056402    -0.82698549
-0.21282555    -0.15418904    -0.96484767
-0.13331349    -0.17614658    -0.97529477
-0.15677263    -0.19817342    -0.96754826
-0.63018297    -0.64675053    -0.42963145
-0.79610835    -0.42772808    -0.42808899
-0.043347331    -0.98126952    -0.18769959
-0.16618616    -0.66269095    -0.73022111
0.1412476    -0.89086145    -0.43175802
-0.14721826   -0.034605104    -0.98849849
-0.32245904    -0.62067125     -0.7146939
0.0099348005    -0.93993451    -0.34121023
-0.41072468     0.18254604    -0.89329848
-0.16627837    -0.66262217    -0.73026253
0.16506337     -0.8866444    -0.43199049
-0.48493542     0.19399604    -0.85276209
-0.28490982    0.023522151    -0.95826567
-0.46456561    -0.88202056   -0.078857654
-0.32523752    -0.45796887    -0.82733613
-0.069704182    -0.91864073    -0.38889655
-0.30646033     -0.9305164    -0.20055246
-0.20821486    -0.97412631   -0.087889152
-0.10453499   -0.044866867    -0.99350863
0.12691173      -0.788415    -0.60190963
0.065078547     -0.9563456    -0.28489976
-0.020239823    -0.93128081    -0.36373946
0.10357274    -0.39726031     -0.9118426
0.1550344    -0.78499214    -0.59979302
-0.25235166    -0.52075645    -0.81555586
0.087494895    -0.95038362     -0.2985224
-0.43948425     0.17255349    -0.88152078
0.13914408    -0.86329314    -0.48514315
-0.57754589    -0.14582157    -0.80322899
-0.69613722   -0.035166159    -0.71704694
-0.68395876    -0.18430186    -0.70585639
-0.43150843    -0.88637579    -0.16774514
-0.032734241    -0.22303431    -0.97426083
-0.06968849    -0.91881898    -0.38847805
-0.42637749    0.035275945     -0.9038572
-0.13641029    -0.28568301      -0.948566
-0.207798    -0.96383507     -0.1668591
-0.010002373    -0.87901299     -0.4766929
0.068031942    -0.94913151    -0.30744272
-0.12932253      -0.968965    -0.21067158
0.096289573     -0.8297211    -0.54981016
-0.15684566    -0.56172832    -0.81231812
-0.61159696    -0.27262777    -0.74271344
-0.034196396     -0.2219552    -0.97445703
-0.22984564   -0.074750325    -0.97035219
-0.0093806519     -0.9676885    -0.25197415
0.14286513    -0.41189142    -0.89996389
0.022330033    -0.90023129    -0.43483904
0.13971923    -0.83773617    -0.52789833
-0.24510866    -0.12113691    -0.96189791
0.085992463    -0.44130482    -0.89322749
0.043403872    -0.63783284    -0.76895083
-0.24054181    -0.20257482    -0.94926449
-0.12807554    -0.96924779    -0.21013182
-0.0075109613    -0.95021018    -0.31151918
0.20052145    -0.87954831    -0.43149266
-0.1651863    -0.24873051    -0.95438285
-0.32551496     -0.1580348    -0.93223656
-0.0041173465    -0.89522053    -0.44560436
-0.14057356    -0.29240692    -0.94590553
-0.51149714    -0.80820853     -0.2918384
-0.10575024    -0.77967886    -0.61718536
-0.35149207    -0.25233181    -0.90154422
0.08927628    -0.92202548    -0.37669452
-0.59775112    -0.75274351    -0.27580938
-0.0089617199    -0.40443818    -0.91452143
0.16939441    -0.82898809    -0.53299558
0.069432247    -0.89710169    -0.43633441
-0.18981029    -0.95837188    -0.21329651
0.11720492    -0.90132638    -0.41698174
0.063927278    -0.91788603    -0.39166125
-0.10398501    -0.71703726    -0.68923485
-0.14737748    -0.62737053    -0.76464769
0.1495728    -0.81918188    -0.55368675
0.13428965    -0.53928559     -0.8313467
0.19004342    -0.91192369    -0.36370137
0.070347908      -0.490097    -0.86882455
0.010750213    -0.51853749    -0.85498731
0.032056779    -0.89899056    -0.43679325
0.14545153    -0.71953073    -0.67905771
-0.41847603    -0.39690487    -0.81691146
-0.43211873    -0.35258079    -0.83003626
0.16892839    -0.91821929    -0.35824088
-0.45899166    -0.64925106    -0.60646494
-0.36629758    0.085022976    -0.92660519
0.085134556    -0.88030387     -0.4667089
-0.34674051    -0.93049735    -0.11809193
-0.42259454    -0.80504469    -0.41631348
-0.50220003    -0.68828557    -0.52350559
0.049535132    -0.77770789    -0.62667113
-0.031867112    -0.46653427    -0.88392888
-0.27362771    -0.20615774    -0.93948223
-0.047500854    -0.47033724    -0.88120744
-0.034900156    -0.94760492     -0.3175325
0.18313374    -0.84916039    -0.49536721
0.16583321    -0.89099216    -0.42264917
0.067121554    -0.90200401    -0.42647797
0.1536572    -0.55320236    -0.81875309
0.046421373    -0.69629107     -0.7162568
0.13157345    -0.91933143     -0.3708344
-0.40191628    -0.74811561    -0.52800222
-0.34438737    -0.25780531    -0.90273682
-0.26227479    -0.19045639    -0.94601179
-0.026687492     -0.8969921    -0.44124025
0.08845778    -0.56508874     -0.8202743
0.11733632    -0.60326402    -0.78886292
-0.17712245    -0.30368211    -0.93616495
-0.12598478    -0.95195928    -0.27910815
-0.51773482    -0.64069225    -0.56697804
-0.12525778    -0.29453678    -0.94739568
-0.41524446    -0.38568317    -0.82390566
0.026039803    -0.91593696    -0.40047647
-0.0057263204    -0.91835071    -0.39572616
0.096466596    -0.56731449    -0.81783156
-0.026039793    -0.91586425    -0.40064275
-0.23020486    -0.94784771    -0.22043239
0.13359147     -0.9071487    -0.39904206
0.042171887    -0.63718406    -0.76955702
-0.38774535    -0.39465919     -0.8330052
-0.12673896    -0.29736965    -0.94631312
0.12563237    -0.54188668    -0.83100863
0.16992818    -0.91833539    -0.35746961
0.2484661    -0.83041597    -0.49867215
0.2309144    -0.90064824    -0.36811859
-0.13366591    -0.90300629    -0.40830511
0.060694517    -0.89888931    -0.43395182
0.047472883    -0.87440815    -0.48286303
-0.52020075    -0.76261784    -0.38445444
-0.40294891    -0.75417958    -0.51850298
0.059271734     -0.7240677    -0.68717744
-0.12384325    -0.28733035    -0.94979162
0.16867522    -0.90747358    -0.38476014
-0.047929271    -0.54079277    -0.83978924
0.14780207    -0.89603239    -0.41866513
0.13105411    -0.91733796    -0.37592005
0.16872863    -0.90240018     -0.3964903
0.069487474     -0.8939965    -0.44265307
-0.016848153    -0.52972984    -0.84799908
0.24846508    -0.83041587    -0.49867283
0.14619959    -0.91091095    -0.38583276
0.16087376     -0.6188478    -0.76886087
0.069534988    -0.89562742    -0.43933632
-0.17063983    -0.88296917    -0.43731854
-0.17947263    -0.44554748    -0.87708439
0.14867125    -0.56610561    -0.81081521
-0.022526757    -0.53809587    -0.84258257
0.04670017    -0.89432999      -0.444964
0.08822847    -0.87670365    -0.47287044
0.14907657    -0.72323732     -0.6743174
0.054893277    -0.69668552    -0.71527339
0.07396654    -0.73667268    -0.67219217
-0.12828181    -0.52588864    -0.84082395
-0.22368125     -0.6286897    -0.74479256
-0.2584307    -0.73301478    -0.62920816
-0.34026561    -0.37613327    -0.86182543
-0.213254    -0.46953569    -0.85677242
-0.16628972    -0.88268375    -0.43956469
-0.079818533    -0.49074472    -0.86763968
0.21884296    -0.87460788    -0.43263012
-0.00083731252    -0.86553747    -0.50084348
0.15688452    -0.63402817    -0.75722885
-0.054254388    -0.82038837      -0.569227
-0.14061565    -0.81926161    -0.55591155
0.035223484    -0.87658555    -0.47995529
-0.015998733    -0.57563704     -0.8175488
-0.028683504    -0.64275359    -0.76553581
0.24830604    -0.81915737    -0.51703512
0.084440165    -0.73575905    -0.67195869
0.039227712    -0.61415265    -0.78821172
-0.097989659    -0.81429143    -0.57212542
0.052480301    -0.85962084    -0.50823009
0.097444682    -0.88456195    -0.45613013
0.076952824    -0.87899799    -0.47057497
0.17380224    -0.86947822    -0.46238556
-0.088250444    -0.71750955    -0.69093553
0.11955103     -0.9044014    -0.40959207
0.019692227    -0.86160834    -0.50719156
-0.18255287    -0.56869657    -0.80203408
0.048285796    -0.83985046    -0.54066596
0.091145783    -0.86239128     -0.4979696
0.29420827     -0.7731903    -0.56179912
0.17951237    -0.62775417    -0.75742987
0.11631236    -0.88956408    -0.44175467
0.028522872    -0.71806028    -0.69539621
0.21541622    -0.85992467    -0.46273688
0.079250385    -0.83026008    -0.55171331
0.055390133    -0.73171997    -0.67935102
0.02994307    -0.64479675    -0.76376735
0.10222574    -0.85255019    -0.51255056
0.012199167     -0.7027347     -0.7113474
-0.074967733    -0.74590205    -0.66182322
-0.077856679    -0.78063588     -0.6201177
0.244644    -0.88866082     -0.3878547